# LAMMPS data file written by OVITO Pro 3.7.4
20827 atoms
13718 bonds
6859 angles
4 atom types
1 bond types
1 angle types
-0.982 61.018 xlo xhi
-1.001499 60.998501 ylo yhi
-1.004001 60.995999 zlo zhi

Masses

1 18.9984  # F
2 1.008  # H
3 22.989771  # NA
4 15.999  # O

Atoms  # full

1 1 2 0.0 13.89 12.331 33.990002
2 1 2 0.0 14.488 10.863 33.596001
3 1 4 0.0 13.739 11.344 34.050999
4 2 2 0.0 30.555 18.371 35.148998
5 2 2 0.0 29.895 16.885 35.301998
6 2 4 0.0 29.702 17.849001 35.123001
7 3 2 0.0 14.742 12.975 18.812
8 3 2 0.0 14.891 12.245 17.358999
9 3 4 0.0 14.7 12.1 18.33
10 4 2 0.0 35.044998 22.468 23.76
11 4 2 0.0 35.250999 22.507 22.141001
12 4 4 0.0 34.867001 22.990999 22.926001
13 5 2 0.0 3.931 46.867001 50.348
14 5 2 0.0 2.444 46.195 50.290001
15 5 4 0.0 3.114 46.737999 49.785
16 6 2 0.0 5.517 14.547 56.301998
17 6 2 0.0 4.536 15.46 57.235001
18 6 4 0.0 5.247 15.482 56.533001
19 7 2 0.0 6.09 44.362 7.334
20 7 2 0.0 5.392 43.509998 6.129
21 7 4 0.0 5.372 43.702999 7.109
22 8 2 0.0 25.132999 6.736 34.625
23 8 2 0.0 26.613001 7.139 34.063999
24 8 4 0.0 26.086 6.903 34.880001
25 9 2 0.0 0.017 59.665001 35.917999
26 9 2 0.0 1.222 58.727001 36.497002
27 9 4 0.0 0.852 59.653999 36.470001
28 10 2 0.0 19.325001 45.404999 0.162
29 10 2 0.0 19.233999 46.536999 1.336
30 10 4 0.0 19.664 46.296001 0.466
31 11 2 0.0 37.599998 10.416 53.458
32 11 2 0.0 36.597 9.311 52.794998
33 11 4 0.0 37.553001 9.542 52.973999
34 12 2 0.0 32.011002 49.125999 55.59
35 12 2 0.0 32.827999 47.716999 55.715
36 12 4 0.0 32.089001 48.269001 56.099998
37 13 2 0.0 52.301998 28.077999 40.212002
38 13 2 0.0 52.438 27.655001 38.639999
39 13 4 0.0 51.803001 27.948 39.354
40 14 2 0.0 15.868 0.842 38.421001
41 14 2 0.0 14.371 0.203 38.293999
42 14 4 0.0 15.345 -0.008 38.362
43 15 2 0.0 49.547001 30.141001 50.459
44 15 2 0.0 51.169998 30.252001 50.606998
45 15 4 0.0 50.324001 29.993 51.071999
46 16 2 0.0 42.801998 28.985001 43.328999
47 16 2 0.0 43.824001 27.728001 43.535
48 16 4 0.0 43.756001 28.688999 43.268002
49 17 2 0.0 49.849998 6.05 35.564999
50 17 2 0.0 50.206001 4.48 35.835999
51 17 4 0.0 49.633999 5.248 36.122002
52 18 2 0.0 7.103 23.695999 28.764999
53 18 2 0.0 5.808 22.704 28.827
54 18 4 0.0 6.805 22.747999 28.875999
55 19 2 0.0 24.792999 12.936 40.173
56 19 2 0.0 24.539 13.856 38.848
57 19 4 0.0 24.179001 13.107 39.403
58 20 2 0.0 45.567001 14.586 5.131
59 20 2 0.0 45.133999 16.108 5.533
60 20 4 0.0 44.993999 15.366 4.878
61 21 2 0.0 13.847 12.213 25.987
62 21 2 0.0 14.939 13.292 26.542999
63 21 4 0.0 14.032 12.898 26.691
64 22 2 0.0 46.776001 24.495001 2.099
65 22 2 0.0 47.979 23.591 2.733
66 22 4 0.0 47.445999 23.775999 1.909
67 23 2 0.0 16.438999 35.223999 48.731998
68 23 2 0.0 14.864 35.52 48.416
69 23 4 0.0 15.673 35.841999 48.907001
70 24 2 0.0 10.468 25.747999 58.326
71 24 2 0.0 12.073 26.035999 58.414001
72 24 4 0.0 11.302 25.57 58.848
73 25 2 0.0 48.456001 20.579 44.597
74 25 2 0.0 48.148998 18.99 44.814999
75 25 4 0.0 48.868999 19.68 44.744999
76 26 2 0.0 23.91 23.673 18.927
77 26 2 0.0 25.261999 24.295 19.599001
78 26 4 0.0 24.320999 24.493 19.326
79 27 2 0.0 22.43 58.373001 40.563999
80 27 2 0.0 22.802999 59.950001 40.766998
81 27 4 0.0 22.349001 59.16 41.175999
82 28 2 0.0 13.191 51.414001 37.937
83 28 2 0.0 14.438 50.761002 37.109001
84 28 4 0.0 14.161 51.174999 37.976002
85 29 2 0.0 7.074 22.101 7.626
86 29 2 0.0 7.736 20.700001 8.14
87 29 4 0.0 6.906 21.256001 8.133
88 30 2 0.0 42.126999 51.844002 32.476002
89 30 2 0.0 43.034 51.472 31.17
90 30 4 0.0 42.674 52.219002 31.726999
91 31 2 0.0 2.249 38.716 37.334
92 31 2 0.0 1.158 37.603001 36.846001
93 31 4 0.0 1.787 38.318001 36.541
94 32 2 0.0 49.41 16.09 59.863998
95 32 2 0.0 50.207001 17.384001 59.264999
96 32 4 0.0 49.396999 17.086 59.769001
97 33 2 0.0 4.527 44.337002 4.245
98 33 2 0.0 3.918 43.966 2.776
99 33 4 0.0 4.69 44.376999 3.259
100 34 2 0.0 28.990999 23.474001 37.471001
101 34 2 0.0 30.191 24.530001 37.137001
102 34 4 0.0 29.216999 24.440001 37.345001
103 35 2 0.0 15.327 53.894001 58.780998
104 35 2 0.0 16.638 54.786999 58.389
105 35 4 0.0 15.717 54.814999 58.777
106 36 2 0.0 56.124001 8.908 25.625
107 36 2 0.0 56.862999 9.922 24.58
108 36 4 0.0 56.438999 9.024 24.681999
109 37 2 0.0 45.880001 29.122 8.842
110 37 2 0.0 44.483002 29.907 9.157
111 37 4 0.0 44.911999 29.009001 9.066
112 38 2 0.0 51.605 4.916 4.06
113 38 2 0.0 49.987999 4.76 4.225
114 38 4 0.0 50.741001 5.412 4.15
115 39 2 0.0 13.915 51.879002 16.073
116 39 2 0.0 14.261 53.220001 16.938
117 39 4 0.0 13.71 52.387001 16.91
118 40 2 0.0 20.232 9.799 27.694
119 40 2 0.0 19.878 8.206 27.766001
120 40 4 0.0 20.618 8.878 27.754999
121 41 2 0.0 38.466999 1.949 1.807
122 41 2 0.0 37.911999 1.851 3.339
123 41 4 0.0 37.824001 1.483 2.415
124 42 2 0.0 59.174 2.189 21.403
125 42 2 0.0 58.395 2.896 20.153999
126 42 4 0.0 58.556999 2.931 21.139
127 43 2 0.0 6.392 49.817001 14.736
128 43 2 0.0 5.286 50.036999 13.555
129 43 4 0.0 5.974 49.411999 13.923
130 44 2 0.0 19.145 9.786 18.891001
131 44 2 0.0 20.749001 9.587 19.122
132 44 4 0.0 19.848 9.522 19.551001
133 45 2 0.0 27.507 51.705002 58.619999
134 45 2 0.0 26.622 50.391998 58.222
135 45 4 0.0 26.591999 51.300999 58.636002
136 46 2 0.0 27.316 2.768 37.007
137 46 2 0.0 26.919001 2.726 38.591
138 46 4 0.0 27.280001 2.194 37.826
139 47 2 0.0 22.601999 39.547001 4.192
140 47 2 0.0 21.021 39.955002 4.194
141 47 4 0.0 21.808001 39.737 4.77
142 48 2 0.0 54.759998 44.886002 46.854
143 48 2 0.0 53.604 45.516998 45.889
144 48 4 0.0 53.932999 44.682999 46.331001
145 49 2 0.0 40.995998 38.247002 11.884
146 49 2 0.0 41.887001 38.923 13.073
147 49 4 0.0 41.252998 39.108002 12.323
148 50 2 0.0 18.993999 47.639999 22.544001
149 50 2 0.0 19.403999 46.98 23.981001
150 50 4 0.0 18.643 47.202 23.372
151 51 2 0.0 39.256001 40.970001 28.452999
152 51 2 0.0 37.623001 40.981998 28.492001
153 51 4 0.0 38.436001 40.402 28.528999
154 52 2 0.0 57.919998 53.644001 31.000999
155 52 2 0.0 58.527 52.714001 32.196999
156 52 4 0.0 57.749001 52.852001 31.586
157 53 2 0.0 58.521999 44.787998 36.754002
158 53 2 0.0 58.624001 46.173 37.612
159 53 4 0.0 58.529999 45.785999 36.695
160 54 2 0.0 5.392 12.188 51.674
161 54 2 0.0 4.151 11.203 52.070999
162 54 4 0.0 5.126 11.379 52.199001
163 55 2 0.0 27.01 9.58 17.879999
164 55 2 0.0 28.358999 10.226 18.537001
165 55 4 0.0 27.999001 9.687 17.775999
166 56 2 0.0 60.0 36.360001 53.386002
167 56 2 0.0 59.813999 34.963001 52.561001
168 56 4 0.0 59.888 35.369999 53.471001
169 57 2 0.0 48.720001 6.727 23.183001
170 57 2 0.0 47.144001 7.154 23.136999
171 57 4 0.0 47.779999 6.384 23.174999
172 58 2 0.0 34.639999 53.862 30.516001
173 58 2 0.0 34.542 55.372002 29.903
174 58 4 0.0 34.370998 54.403999 29.719999
175 59 2 0.0 22.858999 24.688 20.959999
176 59 2 0.0 23.136 26.219999 21.454
177 59 4 0.0 22.538 25.424999 21.555
178 60 2 0.0 57.749001 2.874 14.084
179 60 2 0.0 56.582001 2.441 15.141
180 60 4 0.0 56.873001 2.402 14.186
181 61 2 0.0 49.456001 2.39 8.859
182 61 2 0.0 50.174999 0.928 8.752
183 61 4 0.0 49.599998 1.591 8.275
184 62 2 0.0 28.375 12.031 23.160999
185 62 2 0.0 26.849001 12.153 22.591999
186 62 4 0.0 27.726999 12.623 22.681
187 63 2 0.0 16.483 11.213 35.044998
188 63 2 0.0 17.066999 9.8 35.618999
189 63 4 0.0 17.254 10.577 35.018002
190 64 2 0.0 53.891998 52.964001 29.222
191 64 2 0.0 52.332001 53.313 28.886
192 64 4 0.0 52.959999 52.972 29.584999
193 65 2 0.0 43.453999 15.309 52.388
194 65 2 0.0 42.799999 16.802999 52.487
195 65 4 0.0 42.605 15.835 52.334
196 66 2 0.0 20.731001 43.890999 52.851002
197 66 2 0.0 22.233999 44.389 52.451
198 66 4 0.0 21.462 44.536999 53.07
199 67 2 0.0 4.26 1.353 39.627998
200 67 2 0.0 2.965 1.136 40.598999
201 67 4 0.0 3.651 1.793 40.287998
202 68 2 0.0 4.206 26.372 43.305
203 68 2 0.0 2.791 25.591 43.071999
204 68 4 0.0 3.78 25.479 43.162998
205 69 2 0.0 43.276001 57.417 51.286999
206 69 2 0.0 42.956001 57.237 49.695999
207 69 4 0.0 43.597 57.014 50.43
208 70 2 0.0 41.317001 25.826 22.872999
209 70 2 0.0 41.174999 25.224001 24.384001
210 70 4 0.0 41.09 26.046 23.822001
211 71 2 0.0 15.22 15.157 5.694
212 71 2 0.0 14.16 13.915 5.675
213 71 4 0.0 15.067 14.21 5.976
214 72 2 0.0 5.324 45.973999 6.019
215 72 2 0.0 3.87 45.916 6.761
216 72 4 0.0 4.674 46.483002 6.584
217 73 2 0.0 47.137001 26.318001 3.795
218 73 2 0.0 48.632 25.686001 3.975
219 73 4 0.0 47.731998 25.785999 4.398
220 74 2 0.0 17.474001 54.896 30.417999
221 74 2 0.0 17.712 56.507999 30.527
222 74 4 0.0 17.153 55.792 30.111
223 75 2 0.0 49.661999 32.012001 19.236
224 75 2 0.0 48.959999 30.632999 18.715
225 75 4 0.0 48.814999 31.605 18.896
226 76 2 0.0 14.056 33.426998 0.227
227 76 2 0.0 15.459 34.223 -0.025
228 76 4 0.0 15.02 33.325001 -0.017
229 77 2 0.0 52.342999 19.791 27.26
230 77 2 0.0 51.368999 18.649 27.903999
231 77 4 0.0 52.317001 18.944 27.792
232 78 2 0.0 46.700001 44.528999 43.259998
233 78 2 0.0 45.563999 45.551998 43.834999
234 78 4 0.0 45.719002 44.667 43.396999
235 79 2 0.0 30.042999 36.964001 42.212002
236 79 2 0.0 31.586 36.443001 42.089001
237 79 4 0.0 31.004 37.243 42.23
238 80 2 0.0 42.289001 7.545 9.635
239 80 2 0.0 42.623001 7.559 8.036
240 80 4 0.0 42.242001 7.019 8.785
241 81 2 0.0 38.803001 19.995001 38.632
242 81 2 0.0 39.473999 20.048 37.144001
243 81 4 0.0 39.106998 20.598 37.894001
244 82 2 0.0 33.511002 0.884 24.782
245 82 2 0.0 32.541 0.765 23.474001
246 82 4 0.0 33.426998 0.508 23.858999
247 83 2 0.0 47.803001 56.610001 1.542
248 83 2 0.0 46.713001 55.834 0.604
249 83 4 0.0 46.962002 56.713001 1.009
250 84 2 0.0 24.5 4.087 46.412998
251 84 2 0.0 23.789 4.205 44.948002
252 84 4 0.0 24.319 3.611 45.551998
253 85 2 0.0 24.275 33.188 26.440001
254 85 2 0.0 23.697001 31.957001 25.537001
255 85 4 0.0 23.618999 32.933998 25.73
256 86 2 0.0 8.36 18.233999 35.837002
257 86 2 0.0 9.019 16.966999 35.044998
258 86 4 0.0 9.013 17.962999 35.130001
259 87 2 0.0 42.431999 33.241001 9.791
260 87 2 0.0 41.144001 33.702999 8.899
261 87 4 0.0 41.952999 34.022999 9.392
262 88 2 0.0 24.403999 24.708 41.540001
263 88 2 0.0 24.419001 26.333 41.692001
264 88 4 0.0 23.839001 25.52 41.687
265 89 2 0.0 59.845001 42.613998 45.41
266 89 2 0.0 58.511002 41.708 45.672001
267 89 4 0.0 59.131001 42.382 46.071999
268 90 2 0.0 11.324 28.253 37.134998
269 90 2 0.0 10.552 28.083 38.563
270 90 4 0.0 10.803 27.624001 37.712002
271 91 2 0.0 45.771 0.315 17.771
272 91 2 0.0 47.334 0.785 17.816999
273 91 4 0.0 46.719002 -0.002 17.773001
274 92 2 0.0 10.277 5.726 11.223
275 92 2 0.0 9.16 4.604 10.823
276 92 4 0.0 10.132 4.765 10.99
277 93 2 0.0 22.552999 53.523998 47.755001
278 93 2 0.0 21.013 54.067001 47.721001
279 93 4 0.0 21.709999 53.626999 48.285
280 94 2 0.0 0.481 36.432999 47.556999
281 94 2 0.0 1.961 37.120998 47.502998
282 94 4 0.0 1.381 36.402 47.120998
283 95 2 0.0 28.43 56.500999 32.222
284 95 2 0.0 30.044001 56.261002 32.283001
285 95 4 0.0 29.322001 56.951 32.262001
286 96 2 0.0 22.129999 33.351002 15.42
287 96 2 0.0 22.441 34.937 15.653
288 96 4 0.0 22.704 34.007 15.91
289 97 2 0.0 25.902 52.493 29.802
290 97 2 0.0 26.188 51.271999 28.756001
291 97 4 0.0 25.723 52.147999 28.881001
292 98 2 0.0 36.077 10.598 49.242001
293 98 2 0.0 34.708 11.075 48.490002
294 98 4 0.0 35.48 10.441 48.455002
295 99 2 0.0 7.902 40.122002 4.539
296 99 2 0.0 7.568 41.129002 3.297
297 99 4 0.0 7.352 40.245998 3.713
298 100 2 0.0 20.825001 46.516998 28.225
299 100 2 0.0 19.344 47.001999 27.737
300 100 4 0.0 20.292 47.286999 27.875
301 101 2 0.0 38.193001 8.038 11.464
302 101 2 0.0 38.708 8.93 12.731
303 101 4 0.0 38.348 8.967 11.799
304 102 2 0.0 44.742001 36.800999 28.451
305 102 2 0.0 43.623001 36.550999 27.288
306 102 4 0.0 44.602001 36.618 27.476999
307 103 2 0.0 11.756 58.986 50.702999
308 103 2 0.0 10.642 60.004002 51.327999
309 103 4 0.0 11.278 59.855 50.571999
310 104 2 0.0 44.150002 14.98 39.049
311 104 2 0.0 44.731998 13.462 38.896
312 104 4 0.0 44.492001 14.182 39.546001
313 105 2 0.0 40.453999 32.153999 41.133999
314 105 2 0.0 39.109001 32.956001 40.669998
315 105 4 0.0 40.098 33.025002 40.793999
316 106 2 0.0 47.186001 59.666 47.019001
317 106 2 0.0 46.686001 58.765999 48.286999
318 106 4 0.0 47.300999 59.499001 47.999001
319 107 2 0.0 54.02 33.891998 41.455002
320 107 2 0.0 52.75 32.917999 41.777
321 107 4 0.0 53.741001 32.952 41.652
322 108 2 0.0 24.339001 27.117001 38.404999
323 108 2 0.0 24.959999 27.461 39.875999
324 108 4 0.0 24.149 27.531 39.296001
325 109 2 0.0 0.714 2.675 0.393
326 109 2 0.0 1.67 3.915 0.857
327 109 4 0.0 1.534 3.203 0.169
328 110 2 0.0 39.330002 51.966999 21.113001
329 110 2 0.0 40.747002 52.737 21.372
330 110 4 0.0 40.299 51.844002 21.33
331 111 2 0.0 55.359001 2.591 41.537998
332 111 2 0.0 56.261002 3.874 41.084
333 111 4 0.0 56.254002 2.881 41.196999
334 112 2 0.0 45.542999 39.152 42.743
335 112 2 0.0 44.470001 38.712002 43.893002
336 112 4 0.0 45.055 38.381001 43.153
337 113 2 0.0 28.693001 6.398 14.562
338 113 2 0.0 29.292999 7.776 13.923
339 113 4 0.0 29.398001 7.102 14.653
340 114 2 0.0 18.306999 40.341 34.379002
341 114 2 0.0 17.931 38.769001 34.144001
342 114 4 0.0 18.676001 39.414001 34.308998
343 115 2 0.0 31.459 55.574001 5.208
344 115 2 0.0 31.497 55.162998 6.788
345 115 4 0.0 31.164 54.897999 5.884
346 116 2 0.0 45.391998 21.087 2.551
347 116 2 0.0 43.771 21.150999 2.738
348 116 4 0.0 44.527 20.632 2.341
349 117 2 0.0 55.853001 30.891001 54.647999
350 117 2 0.0 54.516998 30.792 53.715
351 117 4 0.0 55.209 30.266001 54.208
352 118 2 0.0 48.382 46.271 0.003
353 118 2 0.0 47.265999 47.462002 0.0
354 118 4 0.0 48.243999 47.261002 0.002
355 119 2 0.0 45.333 59.083 13.507
356 119 2 0.0 44.276001 59.083 12.262
357 119 4 0.0 44.544998 59.549 13.105
358 120 2 0.0 5.796 34.134998 44.521999
359 120 2 0.0 6.353 33.800999 46.02
360 120 4 0.0 5.635 33.603001 45.354
361 121 2 0.0 20.681999 6.504 26.628
362 121 2 0.0 20.125 6.448 25.093
363 121 4 0.0 20.073999 6.022 25.996
364 122 2 0.0 28.292 59.16 32.765999
365 122 2 0.0 29.767 59.854 32.665001
366 122 4 0.0 28.812 60.0 32.919998
367 123 2 0.0 48.949001 50.152 13.654
368 123 2 0.0 49.187 49.213001 12.34
369 123 4 0.0 49.345001 49.294998 13.323
370 124 2 0.0 32.493999 34.967999 19.159
371 124 2 0.0 34.113998 34.794998 19.263
372 124 4 0.0 33.320999 35.282001 19.627001
373 125 2 0.0 30.924 42.066002 54.604
374 125 2 0.0 30.158001 40.833 55.352001
375 125 4 0.0 30.993 41.381001 55.330002
376 126 2 0.0 36.860001 40.164001 15.58
377 126 2 0.0 37.169998 41.743999 15.852
378 126 4 0.0 37.556999 40.821999 15.867
379 127 2 0.0 24.961 7.514 56.091
380 127 2 0.0 26.047001 8.703 55.819
381 127 4 0.0 25.933001 7.724 55.981998
382 128 2 0.0 36.929001 54.880001 11.218
383 128 2 0.0 36.346001 54.130001 12.547
384 128 4 0.0 36.389999 54.105 11.549
385 129 2 0.0 19.382 30.973 19.805
386 129 2 0.0 17.965 30.188 19.601
387 129 4 0.0 18.396999 31.086 19.671
388 130 2 0.0 2.568 60.002998 53.875
389 130 2 0.0 1.674 59.853001 55.231998
390 130 4 0.0 1.649 59.84 54.233002
391 131 2 0.0 13.911 52.985001 27.247999
392 131 2 0.0 13.042 52.228001 26.091
393 131 4 0.0 13.172 53.089001 26.582001
394 132 2 0.0 6.455 18.993999 11.956
395 132 2 0.0 7.053 20.231001 12.838
396 132 4 0.0 7.15 19.712999 11.989
397 133 2 0.0 49.653999 25.066 32.548
398 133 2 0.0 50.522999 23.885 31.829
399 133 4 0.0 50.297001 24.858999 31.809999
400 134 2 0.0 49.008999 10.811 49.094002
401 134 2 0.0 48.464001 9.34 49.547001
402 134 4 0.0 48.432999 10.037 48.832001
403 135 2 0.0 25.426001 5.744 54.862
404 135 2 0.0 25.291 4.137 55.116001
405 135 4 0.0 25.927 4.907 55.083
406 136 2 0.0 46.966999 54.195 49.401001
407 136 2 0.0 48.257999 54.921001 50.089001
408 136 4 0.0 47.291 55.025002 49.856998
409 137 2 0.0 22.889999 19.448 16.493
410 137 2 0.0 23.836 20.445 15.611
411 137 4 0.0 22.966999 19.952 15.632
412 138 2 0.0 26.653 22.721001 46.16
413 138 2 0.0 26.239 24.108 46.914001
414 138 4 0.0 26.931 23.389999 46.848
415 139 2 0.0 50.889999 52.749001 -0.005
416 139 2 0.0 50.056 51.345001 -0.001
417 139 4 0.0 50.969002 51.751999 -0.001
418 140 2 0.0 30.455999 38.250999 44.173
419 140 2 0.0 28.874001 38.470001 43.834999
420 140 4 0.0 29.523001 38.099998 44.499001
421 141 2 0.0 39.085999 44.716 35.555
422 141 2 0.0 38.953999 43.457001 36.585999
423 141 4 0.0 39.498001 44.258999 36.342999
424 142 2 0.0 31.709999 5.086 35.596001
425 142 2 0.0 30.978001 3.631 35.720001
426 142 4 0.0 30.832001 4.62 35.710999
427 143 2 0.0 18.396999 39.478001 40.425999
428 143 2 0.0 18.229 39.660999 38.812
429 143 4 0.0 17.782 39.780998 39.698002
430 144 2 0.0 57.306 4.593 43.18
431 144 2 0.0 57.491001 3.071 43.742001
432 144 4 0.0 56.929001 3.667 43.169998
433 145 2 0.0 29.888 29.617001 22.531
434 145 2 0.0 28.785999 30.809 22.35
435 145 4 0.0 28.912001 29.823 22.452
436 146 2 0.0 20.1 59.458 48.083
437 146 2 0.0 21.146999 60.0 46.952999
438 146 4 0.0 20.98 59.91 47.933998
439 147 2 0.0 13.228 24.353001 13.373
440 147 2 0.0 14.2 23.096001 12.999
441 147 4 0.0 14.095 24.089001 12.951
442 148 2 0.0 36.339001 49.948002 3.415
443 148 2 0.0 37.816002 50.110001 2.736
444 148 4 0.0 37.104 49.459 2.994
445 149 2 0.0 43.389 7.437 25.528
446 149 2 0.0 44.645 8.478 25.594
447 149 4 0.0 43.647999 8.4 25.597
448 150 2 0.0 25.968 14.501 49.650002
449 150 2 0.0 25.830999 15.89 50.498001
450 150 4 0.0 26.474001 15.228 50.116001
451 151 2 0.0 32.384998 58.023998 9.703
452 151 2 0.0 33.265999 59.162998 8.932
453 151 4 0.0 32.393002 58.971001 9.38
454 152 2 0.0 9.459 39.909 15.973
455 152 2 0.0 8.125 40.797001 15.659
456 152 4 0.0 8.567 40.195 16.323
457 153 2 0.0 57.598 14.43 20.972
458 153 2 0.0 59.181 14.83 20.997999
459 153 4 0.0 58.250999 15.186 20.917999
460 154 2 0.0 48.118999 27.705 18.493999
461 154 2 0.0 49.587002 28.219 17.996
462 154 4 0.0 48.66 28.506001 18.238001
463 155 2 0.0 57.542999 48.387001 9.253
464 155 2 0.0 56.408001 49.471001 9.704
465 155 4 0.0 56.898998 49.078999 8.926
466 156 2 0.0 10.643 38.150002 47.540001
467 156 2 0.0 10.822 39.647999 46.912998
468 156 4 0.0 10.375 38.761002 46.794998
469 157 2 0.0 0.373 43.355999 41.049
470 157 2 0.0 1.892 43.720001 41.527
471 157 4 0.0 1.064 44.077999 41.095001
472 158 2 0.0 5.277 7.015 33.757999
473 158 2 0.0 6.447 7.395 34.832001
474 158 4 0.0 5.624 7.725 34.370998
475 159 2 0.0 54.294998 18.701 30.416
476 159 2 0.0 53.423 17.448 29.834
477 159 4 0.0 53.527 18.086 30.596001
478 160 2 0.0 13.153 56.522999 24.665001
479 160 2 0.0 13.673 57.688 25.684999
480 160 4 0.0 13.47 56.713001 25.594999
481 161 2 0.0 57.028999 0.06 33.445
482 161 2 0.0 56.497002 1.395 32.669998
483 161 4 0.0 56.236 0.495 33.016998
484 162 2 0.0 53.106998 33.990002 8.907
485 162 2 0.0 53.226002 34.93 10.237
486 162 4 0.0 52.591999 34.505001 9.593
487 163 2 0.0 26.367001 16.094999 52.636002
488 163 2 0.0 27.231001 17.159 51.75
489 163 4 0.0 26.399 17.032 52.289001
490 164 2 0.0 57.488998 46.324001 25.822001
491 164 2 0.0 56.742001 44.907001 25.504
492 164 4 0.0 57.558998 45.328999 25.896
493 165 2 0.0 19.921 25.261 22.937
494 165 2 0.0 20.271 23.673 22.791
495 165 4 0.0 20.66 24.591 22.864
496 166 2 0.0 45.248001 57.844002 57.480999
497 166 2 0.0 46.797001 57.402 57.747002
498 166 4 0.0 45.888 57.076 57.491001
499 167 2 0.0 58.101002 39.365002 46.816002
500 167 2 0.0 59.140999 38.154999 47.164001
501 167 4 0.0 58.993 38.966999 46.601002
502 168 2 0.0 18.872999 38.731998 36.542
503 168 2 0.0 17.273001 38.585999 36.247002
504 168 4 0.0 17.992001 39.207001 36.556999
505 169 2 0.0 32.845001 10.267 59.589001
506 169 2 0.0 31.392 9.553 59.377998
507 169 4 0.0 31.950001 10.1 60.000999
508 170 2 0.0 51.300999 41.41 18.121
509 170 2 0.0 50.664001 39.974998 18.569
510 170 4 0.0 50.509998 40.805 18.033001
511 171 2 0.0 12.647 23.900999 1.108
512 171 2 0.0 13.538 25.069 0.395
513 171 4 0.0 13.342 24.604 1.257
514 172 2 0.0 13.889 24.792 58.547001
515 172 2 0.0 14.153 25.489 60.0
516 172 4 0.0 14.086 24.618999 59.513
517 173 2 0.0 23.355 48.529999 27.351
518 173 2 0.0 24.827999 47.827 27.398001
519 173 4 0.0 24.33 48.661999 27.167
520 174 2 0.0 54.405998 4.688 47.448002
521 174 2 0.0 54.321999 3.103 47.831001
522 174 4 0.0 53.882999 3.994 47.943001
523 175 2 0.0 31.832001 5.654 40.740002
524 175 2 0.0 30.521999 4.781 40.307999
525 175 4 0.0 31.353001 4.785 40.862999
526 176 2 0.0 0.298 56.015999 38.782001
527 176 2 0.0 0.795 57.558998 38.977001
528 176 4 0.0 0.0 56.969002 38.84
529 177 2 0.0 35.151001 42.849998 6.805
530 177 2 0.0 34.27 41.528999 7.188
531 177 4 0.0 34.805 42.287998 7.557
532 178 2 0.0 9.959 30.118999 53.056
533 178 2 0.0 8.968 28.823 52.994999
534 178 4 0.0 9.006 29.820999 52.995998
535 179 2 0.0 40.585999 4.234 20.412001
536 179 2 0.0 39.896999 5.714 20.414
537 179 4 0.0 40.036999 4.881 19.881001
538 180 2 0.0 6.641 31.569 60.0
539 180 2 0.0 7.096 31.216999 58.472
540 180 4 0.0 6.801 30.83 59.345001
541 181 2 0.0 58.748001 3.061 59.245998
542 181 2 0.0 60.0 4.108 59.201
543 181 4 0.0 59.174999 3.844 59.699001
544 182 2 0.0 35.893002 15.518 17.018999
545 182 2 0.0 34.696999 16.475 16.455
546 182 4 0.0 35.674999 16.277 16.405001
547 183 2 0.0 26.285999 34.970001 30.506001
548 183 2 0.0 26.355 33.924 31.757999
549 183 4 0.0 26.132999 34.860001 31.488001
550 184 2 0.0 1.208 21.159 26.211
551 184 2 0.0 -0.001 21.787001 25.311001
552 184 4 0.0 0.764 21.143999 25.315001
553 185 2 0.0 26.521 26.455999 22.082001
554 185 2 0.0 25.278999 25.415001 22.278
555 185 4 0.0 26.256001 25.558001 22.434
556 186 2 0.0 50.957001 42.580002 11.566
557 186 2 0.0 50.933998 41.070999 10.943
558 186 4 0.0 50.449001 41.943001 10.986
559 187 2 0.0 37.84 46.528 56.326
560 187 2 0.0 38.875 47.703999 55.866001
561 187 4 0.0 38.720001 46.963001 56.516998
562 188 2 0.0 24.483999 0.036 51.493
563 188 2 0.0 25.698 1.127 51.470001
564 188 4 0.0 25.476999 0.152 51.479
565 189 2 0.0 1.559 23.899 12.703
566 189 2 0.0 2.307 23.830999 14.153
567 189 4 0.0 2.106 23.326 13.314
568 190 2 0.0 24.912001 6.183 5.354
569 190 2 0.0 25.500999 4.953 6.252
570 190 4 0.0 24.940001 5.189 5.459
571 191 2 0.0 46.130001 21.677999 30.355
572 191 2 0.0 45.633999 20.546 29.288
573 191 4 0.0 46.133999 20.701 30.139
574 192 2 0.0 17.933001 9.024 21.768999
575 192 2 0.0 17.752001 7.604 20.983999
576 192 4 0.0 18.407 8.308 21.256001
577 193 2 0.0 53.087002 34.216 58.507
578 193 2 0.0 54.016998 35.556 58.423
579 193 4 0.0 53.977001 34.609001 58.740002
580 194 2 0.0 28.782 52.877998 31.709999
581 194 2 0.0 29.612 51.486 31.506001
582 194 4 0.0 29.679001 52.483002 31.511999
583 195 2 0.0 23.011999 43.272999 44.078999
584 195 2 0.0 23.622 44.611 44.790001
585 195 4 0.0 23.634001 43.612 44.785
586 196 2 0.0 23.985001 43.306999 34.799999
587 196 2 0.0 23.386 41.787998 34.784
588 196 4 0.0 24.108 42.383999 34.435001
589 197 2 0.0 49.999001 23.535 9.33
590 197 2 0.0 49.362999 25.021999 9.554
591 197 4 0.0 49.981998 24.476 8.991
592 198 2 0.0 15.551 37.671001 57.403999
593 198 2 0.0 16.16 37.862999 58.905998
594 198 4 0.0 16.018 38.304001 58.021
595 199 2 0.0 18.851999 28.582001 47.820999
596 199 2 0.0 19.848 27.389999 47.318001
597 199 4 0.0 18.893999 27.653999 47.452
598 200 2 0.0 14.881 3.534 31.830999
599 200 2 0.0 13.616 3.924 32.787998
600 200 4 0.0 13.883 3.532 31.908001
601 201 2 0.0 55.082001 52.671001 56.196999
602 201 2 0.0 56.152 53.845001 56.576
603 201 4 0.0 55.834 53.233002 55.853001
604 202 2 0.0 44.583 6.046 11.165
605 202 2 0.0 43.409 5.33 12.047
606 202 4 0.0 43.783001 6.206 11.744
607 203 2 0.0 12.565 29.988001 53.148998
608 203 2 0.0 13.426 31.327999 53.508999
609 203 4 0.0 13.485 30.375 53.213001
610 204 2 0.0 52.481998 55.742001 53.304001
611 204 2 0.0 51.138 55.132 52.604
612 204 4 0.0 52.057999 54.917 52.929001
613 205 2 0.0 12.459 36.397999 54.394001
614 205 2 0.0 12.285 37.375 55.691002
615 205 4 0.0 12.056 36.481998 55.306
616 206 2 0.0 14.197 44.131001 47.256001
617 206 2 0.0 14.035 42.578999 46.773998
618 206 4 0.0 13.562 43.452999 46.886002
619 207 2 0.0 6.133 21.705 34.254002
620 207 2 0.0 5.734 20.746 35.514
621 207 4 0.0 6.481 21.048 34.923
622 208 2 0.0 39.154999 10.562 28.291
623 208 2 0.0 38.243 9.908 27.105
624 208 4 0.0 38.361 10.703 27.698999
625 209 2 0.0 51.540001 31.761999 26.402
626 209 2 0.0 50.915001 31.288 27.834999
627 209 4 0.0 51.752998 31.549 27.356001
628 210 2 0.0 31.816999 4.568 38.543999
629 210 2 0.0 32.206001 3.123 37.890999
630 210 4 0.0 32.042 3.615 38.745998
631 211 2 0.0 4.354 36.855 30.388
632 211 2 0.0 4.916 37.860001 29.229
633 211 4 0.0 4.261 37.132 29.431
634 212 2 0.0 14.363 32.93 49.66
635 212 2 0.0 15.944 33.165001 49.328999
636 212 4 0.0 15.071 33.618 49.504002
637 213 2 0.0 53.807999 34.853001 -0.002
638 213 2 0.0 52.681999 36.035 0.002
639 213 4 0.0 52.827 35.047001 0.006
640 214 2 0.0 35.84 37.738998 46.152
641 214 2 0.0 34.761002 37.305 45.007
642 214 4 0.0 35.646 37.089001 45.417999
643 215 2 0.0 58.334999 38.612 28.49
644 215 2 0.0 59.962002 38.540001 28.365999
645 215 4 0.0 59.125999 38.0 28.461
646 216 2 0.0 35.458 18.424 15.689
647 216 2 0.0 34.679001 18.629 17.108999
648 216 4 0.0 35.257 19.070999 16.424999
649 217 2 0.0 13.263 3.35 21.73
650 217 2 0.0 12.877 1.954 20.976
651 217 4 0.0 12.536 2.85 21.259001
652 218 2 0.0 52.695999 13.462 33.269001
653 218 2 0.0 53.338001 14.896 32.824001
654 218 4 0.0 53.216 13.94 32.560001
655 219 2 0.0 4.345 42.470001 33.060001
656 219 2 0.0 3.251 41.293999 32.769001
657 219 4 0.0 4.226 41.507 32.817001
658 220 2 0.0 56.162998 29.771999 29.298
659 220 2 0.0 54.585999 30.197001 29.283001
660 220 4 0.0 55.231998 29.452999 29.115999
661 221 2 0.0 11.979 57.971001 0.97
662 221 2 0.0 11.212 59.036999 0.0
663 221 4 0.0 11.979 58.400002 0.067
664 222 2 0.0 29.541 39.476002 57.207001
665 222 2 0.0 29.745001 37.890999 57.541
666 222 4 0.0 30.214001 38.762001 57.400002
667 223 2 0.0 58.521 38.101002 10.09
668 223 2 0.0 58.25 36.498001 10.247
669 223 4 0.0 58.023998 37.316002 9.719
670 224 2 0.0 23.872 27.131001 10.147
671 224 2 0.0 22.399 26.938999 9.467
672 224 4 0.0 22.886 27.212999 10.296
673 225 2 0.0 32.174999 9.023 10.048
674 225 2 0.0 33.543999 8.15 10.221
675 225 4 0.0 32.556 8.156 10.368
676 226 2 0.0 56.070999 55.362 41.828999
677 226 2 0.0 57.066002 54.875999 40.627998
678 226 4 0.0 56.185001 54.716999 41.071999
679 227 2 0.0 35.991001 54.596001 34.289001
680 227 2 0.0 36.903 55.487 35.310001
681 227 4 0.0 35.981998 55.352001 34.944
682 228 2 0.0 24.221001 17.740999 32.014
683 228 2 0.0 25.610001 17.117001 32.603001
684 228 4 0.0 24.837999 16.954 31.99
685 229 2 0.0 41.261002 46.723999 40.299999
686 229 2 0.0 41.019001 45.110001 40.254002
687 229 4 0.0 41.708 45.833 40.226002
688 230 2 0.0 37.342999 27.990999 50.605
689 230 2 0.0 37.974998 26.653999 49.910999
690 230 4 0.0 37.263 26.997 50.522999
691 231 2 0.0 42.953999 5.617 30.785
692 231 2 0.0 42.863998 7.223 30.506001
693 231 4 0.0 43.178001 6.523 31.146
694 232 2 0.0 38.938 56.727001 8.273
695 232 2 0.0 38.750999 56.705002 6.651
696 232 4 0.0 38.563 56.214001 7.501
697 233 2 0.0 5.886 55.485001 34.213001
698 233 2 0.0 5.07 55.341 32.806
699 233 4 0.0 5.018 55.214001 33.796001
700 234 2 0.0 52.488998 22.115999 33.236
701 234 2 0.0 51.935001 21.837 31.725
702 234 4 0.0 51.696999 22.191 32.629002
703 235 2 0.0 31.799999 48.674999 51.554001
704 235 2 0.0 33.069 47.653999 51.439999
705 235 4 0.0 32.362 48.138 50.924999
706 236 2 0.0 51.359001 53.272999 57.198002
707 236 2 0.0 50.912998 51.875999 56.480999
708 236 4 0.0 50.596001 52.648998 57.028999
709 237 2 0.0 42.969002 18.665001 42.616001
710 237 2 0.0 41.742001 19.718 42.846001
711 237 4 0.0 41.985001 18.808001 42.511002
712 238 2 0.0 50.636002 9.469 52.990002
713 238 2 0.0 50.716 7.845 52.841999
714 238 4 0.0 51.042 8.634 53.362
715 239 2 0.0 10.322 26.704 41.305
716 239 2 0.0 10.768 25.142 41.139
717 239 4 0.0 10.933 25.988001 41.644001
718 240 2 0.0 44.577 13.224 7.673
719 240 2 0.0 44.049999 12.323 8.929
720 240 4 0.0 44.438999 12.292 8.009
721 241 2 0.0 33.950001 3.631 8.511
722 241 2 0.0 35.151001 2.598 8.116
723 241 4 0.0 34.171001 2.779 8.037
724 242 2 0.0 27.596001 54.466999 41.664001
725 242 2 0.0 26.004999 54.176998 41.893002
726 242 4 0.0 26.68 54.866001 41.630001
727 243 2 0.0 49.084 43.693001 42.870998
728 243 2 0.0 48.457001 42.229 43.231998
729 243 4 0.0 49.303001 42.740002 43.080002
730 244 2 0.0 29.739 42.27 41.847
731 244 2 0.0 30.900999 41.140999 41.639999
732 244 4 0.0 30.726 42.105999 41.830002
733 245 2 0.0 29.127001 13.809 30.094999
734 245 2 0.0 29.870001 12.355 30.099001
735 245 4 0.0 28.985001 12.819 30.094
736 246 2 0.0 9.951 35.507999 57.292999
737 246 2 0.0 10.809 34.835999 56.077
738 246 4 0.0 10.043 35.438999 56.299999
739 247 2 0.0 42.665001 14.715 10.239
740 247 2 0.0 44.077999 14.48 9.454
741 247 4 0.0 43.102001 14.261 9.462
742 248 2 0.0 17.969 47.847 30.834999
743 248 2 0.0 17.195 49.285 30.815001
744 248 4 0.0 17.275 48.395 30.368
745 249 2 0.0 20.344 25.438 4.497
746 249 2 0.0 19.959999 26.908001 3.898
747 249 4 0.0 20.014999 25.931 3.692
748 250 2 0.0 22.347 51.202 52.271999
749 250 2 0.0 23.707001 51.653 53.055
750 250 4 0.0 22.773001 51.921001 52.820999
751 251 2 0.0 20.827999 20.218 55.473999
752 251 2 0.0 19.872 19.354 56.478001
753 251 4 0.0 19.968 20.219 55.985001
754 252 2 0.0 37.330002 45.324001 44.75
755 252 2 0.0 37.467999 44.618999 46.216
756 252 4 0.0 36.833 45.043999 45.570999
757 253 2 0.0 13.783 20.416 28.955
758 253 2 0.0 14.348 19.541 27.698
759 253 4 0.0 14.373 19.653 28.691